# vtk DataFile Version 2.0
Cylinder, generated by LINTETRA 0.1
ASCII
DATASET UNSTRUCTURED_GRID
POINTS 165 double
1 -2.449293598294706e-16 5
1 -2.449293598294706e-16 0
0.8412535328311815 0.540640817455597 5
0.4154150130018879 0.9096319953545177 5
-0.1423148382732835 0.989821441880933 5
-0.6548607339452837 0.7557495743542595 5
-0.9594929736144967 0.2817325568414322 5
-0.9594929736144985 -0.281732556841426 5
-0.6548607339452889 -0.7557495743542549 5
-0.1423148382732923 -0.9898214418809317 5
0.4154150130018804 -0.9096319953545211 5
0.8412535328311798 -0.5406408174555998 5
1 -2.449293598294706e-16 0.5555555555555564
1 -2.449293598294706e-16 1.111111111111112
1 -2.449293598294706e-16 1.666666666666669
1 -2.449293598294706e-16 2.222222222222227
1 -2.449293598294706e-16 2.777777777777782
1 -2.449293598294706e-16 3.333333333333336
1 -2.449293598294706e-16 3.88888888888889
1 -2.449293598294706e-16 4.444444444444444
0.8412535328311815 0.540640817455597 0
0.4154150130018879 0.9096319953545177 0
-0.1423148382732835 0.989821441880933 0
-0.6548607339452837 0.7557495743542595 0
-0.9594929736144967 0.2817325568414322 0
-0.9594929736144985 -0.281732556841426 0
-0.6548607339452889 -0.7557495743542549 0
-0.1423148382732923 -0.9898214418809317 0
0.4154150130018804 -0.9096319953545211 0
0.8412535328311798 -0.5406408174555998 0
0.8842592592606356 -0.466996319484246 2.500000000000004
0.8840996384012414 0.4672984371670786 2.499498082129952
-0.9960558780032787 0.08872816855496138 4.476511501240312
-0.9958559428446148 0.09094471453066021 0.5238306639935257
0.8842592592593848 0.4669963194866145 3.611111111111112
0.8842592592593836 0.4669963194866167 1.388888888888891
0.8785975642631242 -0.477562896455436 3.607158353250892
0.8730664644196439 -0.4876012189338567 1.395507959545905
-0.3999229333623724 0.9165487697721466 4.518140796718292
-0.393590424630995 0.9192859063636258 0.4963107038316563
-0.4309800262340139 -0.9023614669229447 0.4763708697754335
-0.4440110069276949 -0.8960213310669867 4.501391542971178
0.6191000547508859 0.7853121177006313 0.5007480204464342
0.5991765879674238 0.8006168974183071 4.514045966601705
0.6727945221473656 -0.7398293931498654 0.4467236071683665
0.6729173718223532 -0.7397176560686495 4.55272544798357
0.8840613974928725 0.4673707794278 3.056091185700016
0.562334595842482 0.8269097909195854 2.778199798577365
0.5624028754158629 0.826863353719325 2.220426797334895
0.1084677529410718 0.9940999680977334 2.498707978399952
0.1086513049958581 0.994079923307325 3.057892062943389
-0.3717064563749044 0.9283503165773206 2.778152726833147
-0.3712788878047945 0.928521398498944 2.218103795532594
-0.3716057678915703 0.9283906253672084 3.338381270945245
-0.7651054448119639 0.6439050072169706 3.058307495469728
-0.7652087129934086 0.6437822811781722 3.618684076426164
-0.9782800555378844 0.2072875609794129 3.33855816172813
-0.9782752621456012 0.2073101817903676 2.77786414901581
-0.960482703866992 -0.278339676604598 3.05790819099464
-0.9604697616737902 -0.2783843330905902 2.49709572849224
-0.7157208791890862 -0.6983864425178953 2.777356991315284
-0.715763410515273 -0.6983428528792607 2.216534211906373
-0.9605128875603172 -0.2782354988683893 1.935748169805408
-0.7159236620391 -0.6981785660792836 3.338223989508542
-0.3024363228119184 -0.9531695917537472 3.058173325341422
-0.7060292299486531 -0.7081826928541193 1.634757344584994
-0.2999503741141918 -0.9539548066175653 1.932572865723632
0.109618053133194 0.9939737835714221 3.617939010882733
-0.2934376932920937 -0.955978200669563 3.602306913288925
-0.2954413367688247 -0.9553608828752881 1.372851112887186
-0.9605622022809325 -0.2780652001765141 1.374072203076473
-0.9780760608203979 0.2082479753804424 1.655097027715691
0.1701893530770073 -0.9854113781052205 3.335708624600348
0.1668581354923551 -0.9859809139227873 2.777242155076042
0.1706977455088705 -0.9853234391194543 1.65449545132288
0.1664026416237936 -0.9860578892035818 3.878682221942992
0.1667085083506893 -0.986006223734662 1.113730473419138
-0.6950432748912346 -0.7189679033367676 3.9670458043674
0.6226925414956953 -0.7824666119174873 3.058286680316324
-0.9817222200452975 0.1903194227327636 1.106488258196508
-0.7646315661999606 0.6444676624708141 1.380099403577527
-0.982372367083252 0.1869345671384731 3.890581943295692
0.1649252688920759 -0.986306065925216 2.215949543803695
0.623343793804142 -0.7819478977053774 1.935772876383216
-0.3016785517284552 -0.9534096975734103 2.498272932283863
-0.9579579935983489 -0.2869084915108399 3.617673264720617
-0.9781878222763195 0.2077223732540902 2.216856389320949
-0.7644294495287844 0.6447073884275871 1.93738962494519
-0.3699481054324856 0.929052420096366 1.65661153094136
-0.3703041120330933 0.9289105794485184 1.093518708576368
0.1129069291301226 0.9936055682988122 1.377700022911081
0.1238113843902416 0.9923057699597296 0.8212172753577631
0.1092404249815875 0.9940153567977922 1.939817276124556
0.5610381392307202 0.8277899530246372 3.34500265362198
0.8840589322246293 0.4673754426088819 1.94325566028387
-0.7649857827223071 0.6440471661553516 2.497779030186236
0.563411335433958 0.8261765350725739 1.661831304460585
0.5764580406992711 0.8171267510693537 1.100971346441867
-0.7877877392435011 0.6159468141792874 4.173786010211084
-0.3814174222781784 0.9244029153906157 3.912937612324453
0.1132376397236882 0.9935679327302226 4.197982927674428
0.5631219776582062 0.826373788474871 3.926498958997021
-0.7839817517952529 0.6207838696777217 0.8295155764757625
0.1545822788241049 -0.9879799183554019 4.440933658109926
0.1568738692884307 -0.9876186455988346 0.5537046781775189
-0.8412535328311835 -0.5406408174555938 4.513709056668098
-0.8508279239199917 -0.5254444251088756 0.4756333757385623
-0.6938545190724157 -0.7201152035353696 1.01863392563396
0.8903145159628951 0.4553460910843045 4.144557433413551
0.8903145159628945 0.4553460910843058 0.8554425665864508
0.8962629433546406 -0.4435230956435935 0.8215397594518007
0.8969284718640298 -0.4421756623330328 4.178318538031575
-0.9606453795225872 -0.277777707532308 4.103202526811504
-0.9604411880054353 -0.2784828978280497 0.8866385176934731
0.5249736458723735 -0.8511184824332437 2.497450251115856
0.9299654854152528 -0.3676468358851647 3.055311228935667
0.9291818586922675 -0.3696228800780369 1.944033944963604
0.512177077858964 -0.858879875719447 3.590428828848987
0.5103208753178137 -0.8599840720704428 1.404778565489674
-0.8412535328311801 0.5406408174555992 0.375943440674154
-0.2384769392795682 -0.9711481603915281 4.078072028136083
-0.8412535328311801 0.5406408174555992 4.630678261322037
-0.244605002687466 -0.9696228094781314 0.9147217301024611
0.1423148382732869 0.9898214418809325 0.3565618298316676
0.5690001879565655 -0.8223373918930071 4.072308264134385
0.5681805423324511 -0.8229039259323058 0.9243860667772341
0.9144174253020897 0.4047724945001788 4.585412480571121
0.9144174253020894 0.4047724945001795 0.4145875194288775
0.9207932101423069 -0.3900511045437836 0.3964301816031911
0.9144174253020702 -0.4047724945002228 4.585412480571095
0.1338378201200708 0.9910032481811084 4.660736381694347
-0.4206888613569912 -0.256529112406623 5
0.3409302385919799 0.4072194964235643 5
0.3420868252333173 -0.3947892416830759 5
-0.5181811191809573 0.1808408552092252 5
0.006162492576034767 0.002591937139216744 5
-0.09214149120493699 0.5409758833936194 5
-0.07570001712738995 -0.5506549047566984 5
0.5625338196813039 -1.24153209735445e-15 5
-0.4206888613569912 -0.256529112406623 0
0.3409302385919799 0.4072194964235643 0
0.3420868252333173 -0.3947892416830759 0
-0.5181811191809573 0.1808408552092252 0
0.006162492576034767 0.002591937139216744 0
-0.09214149120493699 0.5409758833936194 0
-0.07570001712738995 -0.5506549047566984 0
0.5625338196813039 -1.24153209735445e-15 0
0.0008932117630580105 0.001279718328671686 1.524726027524637
-6.610369619530765e-05 0.0001115066733909376 2.638343001663372
0.00135603550734481 0.000240111420298339 3.74983865734364
0.2317924690066896 0.01785637712621452 0.763165572115805
0.2838607231519414 -0.1033337803674546 4.374039488353664
0.3550300076305124 0.08758956421159414 2.081931149687992
-0.3751882997196585 -0.0159985691211581 0.9943608477165782
-0.3274309742567781 0.1629177456724409 2.081422270850951
-0.3300527880131066 0.1586181898938641 3.194495619028128
0.3555753048511094 0.08756198028172674 3.193626591408343
-0.3716958347643833 -0.04239735304499545 4.296224244369006
-0.04435052859692212 -0.4014444236367966 2.101187372097455
-0.07698757971223805 -0.4102221928603004 3.280389857543863
0.00693277027149608 0.4540759479181273 1.1204489808838
0.2259337984656806 -0.4055940976951088 1.168136222865836
-0.1155801470909338 -0.4448016697904429 0.6982843689894098
-0.2066590414711218 0.3659742877842991 0.5778910746586834
0.01697753656825127 0.4021174487877412 4.19407455437605

CELLS 794 3612
1 0
1 1
2 0 2
2 2 3
2 3 4
2 4 5
2 5 6
2 6 7
2 7 8
2 8 9
2 9 10
2 10 11
2 11 0
2 1 12
2 12 13
2 13 14
2 14 15
2 15 16
2 16 17
2 17 18
2 18 19
2 19 0
2 1 20
2 20 21
2 21 22
2 22 23
2 23 24
2 24 25
2 25 26
2 26 27
2 27 28
2 28 29
2 29 1
3 0 126 2
3 11 129 0
3 19 126 0
3 0 129 19
3 1 127 12
3 12 128 1
3 20 127 1
3 1 128 29
3 2 43 3
3 2 126 43
3 3 130 4
3 43 130 3
3 4 38 5
3 4 130 38
3 5 121 6
3 38 121 5
3 6 32 7
3 6 121 32
3 7 105 8
3 32 105 7
3 8 41 9
3 8 105 41
3 9 103 10
3 41 103 9
3 10 45 11
3 10 103 45
3 45 129 11
3 12 109 13
3 13 110 12
3 12 127 109
3 110 128 12
3 13 35 14
3 14 37 13
3 13 109 35
3 37 110 13
3 14 94 15
3 15 116 14
3 35 94 14
3 14 116 37
3 16 30 15
3 15 31 16
3 30 116 15
3 15 94 31
3 16 46 17
3 17 115 16
3 16 115 30
3 31 46 16
3 17 34 18
3 18 36 17
3 17 46 34
3 36 115 17
3 18 108 19
3 19 111 18
3 34 108 18
3 18 111 36
3 108 126 19
3 19 129 111
3 21 42 20
3 42 127 20
3 22 123 21
3 21 123 42
3 23 39 22
3 39 123 22
3 24 119 23
3 23 119 39
3 25 33 24
3 33 119 24
3 26 106 25
3 25 106 33
3 27 40 26
3 40 106 26
3 28 104 27
3 27 104 40
3 29 44 28
3 44 104 28
3 29 128 44
3 78 114 30
3 30 115 78
3 30 114 83
3 83 116 30
3 31 47 46
3 31 48 47
3 31 94 48
3 32 98 81
3 81 112 32
3 32 121 98
3 32 112 105
3 79 102 33
3 33 113 79
3 102 119 33
3 106 113 33
3 46 93 34
3 93 101 34
3 101 108 34
3 35 96 94
3 35 97 96
3 35 109 97
3 78 115 36
3 36 117 78
3 111 124 36
3 36 124 117
3 37 116 83
3 83 118 37
3 37 125 110
3 118 125 37
3 38 99 98
3 98 121 38
3 38 100 99
3 38 130 100
3 89 91 39
3 39 102 89
3 91 123 39
3 39 119 102
3 104 122 40
3 40 107 106
3 40 122 107
3 41 105 77
3 77 120 41
3 41 120 103
3 91 97 42
3 42 123 91
3 97 109 42
3 109 127 42
3 43 101 100
3 100 130 43
3 43 108 101
3 43 126 108
3 44 125 104
3 110 125 44
3 44 128 110
3 103 124 45
3 45 124 111
3 111 129 45
3 47 93 46
3 48 49 47
3 49 50 47
3 50 93 47
3 48 92 49
3 48 96 92
3 94 96 48
3 49 51 50
3 49 52 51
3 49 92 52
3 51 53 50
3 53 67 50
3 67 93 50
3 52 95 51
3 51 54 53
3 51 95 54
3 52 88 87
3 87 95 52
3 52 92 88
3 54 55 53
3 55 99 53
3 53 99 67
3 54 56 55
3 54 57 56
3 54 95 57
3 56 81 55
3 81 98 55
3 98 99 55
3 57 58 56
3 58 85 56
3 56 85 81
3 57 59 58
3 57 86 59
3 57 95 86
3 59 60 58
3 60 63 58
3 63 85 58
3 59 61 60
3 59 62 61
3 59 86 62
3 61 84 60
3 60 64 63
3 60 84 64
3 62 65 61
3 65 66 61
3 66 84 61
3 62 70 65
3 62 71 70
3 62 86 71
3 64 68 63
3 68 77 63
3 77 85 63
3 64 72 68
3 64 73 72
3 64 84 73
3 65 69 66
3 65 107 69
3 70 107 65
3 69 74 66
3 74 82 66
3 82 84 66
3 67 101 93
3 99 100 67
3 100 101 67
3 72 75 68
3 75 120 68
3 68 120 77
3 69 76 74
3 69 122 76
3 107 122 69
3 71 79 70
3 79 113 70
3 70 113 107
3 71 80 79
3 71 87 80
3 86 87 71
3 73 78 72
3 72 117 75
3 78 117 72
3 73 114 78
3 73 84 82
3 82 114 73
3 76 118 74
3 74 83 82
3 74 118 83
3 103 120 75
3 75 124 103
3 117 124 75
3 76 122 104
3 104 125 76
3 76 125 118
3 77 112 85
3 105 112 77
3 80 102 79
3 87 88 80
3 88 89 80
3 89 102 80
3 85 112 81
3 83 114 82
3 86 95 87
3 88 90 89
3 88 92 90
3 90 91 89
3 90 97 91
3 92 96 90
3 96 97 90
3 107 113 106
3 2 138 0
3 0 138 11
3 3 132 2
3 132 138 2
3 4 136 3
3 3 136 132
3 5 136 4
3 6 134 5
3 134 136 5
3 7 134 6
3 8 131 7
3 131 134 7
3 9 137 8
3 8 137 131
3 10 137 9
3 11 133 10
3 133 137 10
3 11 138 133
3 131 135 134
3 131 137 135
3 132 136 135
3 135 138 132
3 135 137 133
3 133 138 135
3 135 136 134
3 20 1 146
3 1 29 146
3 21 20 140
3 140 20 146
3 22 21 144
3 21 140 144
3 23 22 144
3 24 23 142
3 142 23 144
3 25 24 142
3 26 25 139
3 139 25 142
3 27 26 145
3 26 139 145
3 28 27 145
3 29 28 141
3 141 28 145
3 29 141 146
3 139 142 143
3 139 143 145
3 140 143 144
3 143 140 146
3 143 141 145
3 141 143 146
3 143 142 144
4 75 149 120 151
4 35 13 147 150
4 120 151 149 157
4 35 150 147 160
4 147 150 13 161
4 92 147 96 152
4 92 147 88 160
4 88 147 92 154
4 35 13 14 147
4 92 147 152 154
4 13 14 147 161
4 90 92 88 160
4 92 152 49 154
4 61 59 60 158
4 50 51 49 148
4 52 49 51 148
4 67 149 155 156
4 59 58 60 148
4 49 48 47 148
4 69 153 147 161
4 50 49 47 148
4 67 155 50 156
4 34 149 93 156
4 51 148 50 155
4 59 148 60 158
4 49 152 148 154
4 93 34 101 149
4 108 34 18 149
4 47 48 31 152
4 48 148 49 152
4 67 149 53 155
4 108 149 18 151
4 47 50 148 156
4 67 93 101 149
4 49 148 52 154
4 120 75 68 149
4 35 96 147 152
4 52 148 51 154
4 65 147 69 153
4 95 52 51 154
4 47 148 48 152
4 99 53 67 149
4 57 58 59 155
4 92 48 49 152
4 58 60 148 155
4 58 148 59 155
4 67 93 149 156
4 92 49 52 154
4 99 53 149 155
4 80 147 71 153
4 84 60 64 159
4 103 151 120 157
4 88 80 147 154
4 65 147 62 154
4 50 155 148 156
4 84 148 60 159
4 99 149 55 155
4 70 147 71 154
4 35 147 96 160
4 34 149 108 164
4 147 154 65 158
4 47 31 148 152
4 95 51 148 154
4 55 157 149 164
4 70 62 147 154
4 35 147 14 152
4 147 158 69 161
4 99 55 53 155
4 57 59 148 155
4 71 147 80 154
4 67 53 50 155
4 120 149 77 157
4 81 149 55 157
4 120 68 77 149
4 101 149 34 164
4 84 73 148 159
4 74 69 158 161
4 75 120 103 151
4 88 147 80 160
4 108 149 151 164
4 67 50 93 156
4 101 34 108 164
4 148 155 60 159
4 70 62 65 147
4 70 71 62 154
4 59 57 148 154
4 75 149 117 159
4 84 64 73 159
4 41 103 120 157
4 60 148 84 158
4 18 149 34 156
4 51 95 148 155
4 69 147 65 158
4 47 148 31 156
4 59 154 148 158
4 68 149 75 159
4 31 16 148 152
4 109 150 35 160
4 36 18 149 151
4 75 124 149 151
4 16 31 148 156
4 55 149 81 155
4 58 60 155 159
4 95 148 57 154
4 71 147 70 153
4 117 75 124 149
4 95 57 148 155
4 101 67 149 164
4 65 154 62 158
4 77 85 149 159
4 99 149 67 164
4 83 158 147 161
4 83 152 147 158
4 36 111 18 151
4 35 109 13 150
4 98 157 55 164
4 81 149 85 155
4 84 148 73 158
4 153 162 139 163
4 70 147 65 153
4 147 153 80 160
4 99 55 149 164
4 61 60 84 158
4 77 149 68 159
4 116 14 37 152
4 117 149 36 159
4 73 148 114 158
4 33 153 139 163
4 139 153 106 162
4 78 114 73 148
4 78 148 73 159
4 36 149 124 151
4 98 81 55 157
4 107 65 69 153
4 16 30 115 156
4 35 94 96 152
4 59 61 154 158
4 18 36 149 156
4 85 155 149 159
4 77 149 85 157
4 59 86 57 154
4 85 149 81 157
4 117 124 36 149
4 51 54 95 155
4 88 87 80 154
4 13 37 14 161
4 149 156 36 159
4 78 156 148 159
4 44 150 141 162
4 47 31 46 156
4 36 124 111 151
4 16 148 30 156
4 74 158 83 161
4 128 141 44 150
4 139 33 106 153
4 107 153 69 161
4 74 83 118 161
4 107 153 161 162
4 97 109 35 160
4 114 148 30 158
4 30 148 16 152
4 148 152 30 158
4 31 15 16 152
4 78 30 114 148
4 66 69 65 158
4 95 57 86 154
4 87 71 80 154
4 16 46 31 156
4 42 140 150 163
4 95 54 57 155
4 107 161 69 162
4 35 14 94 152
4 66 74 69 158
4 121 134 157 164
4 77 63 85 159
4 48 92 96 152
4 75 103 124 151
4 126 132 43 151
4 43 151 132 164
4 88 92 52 154
4 77 85 112 157
4 121 38 134 164
4 146 141 128 150
4 142 33 139 163
4 56 81 85 155
4 18 34 17 156
4 51 50 53 155
4 99 98 55 164
4 80 71 79 153
4 150 160 42 163
4 56 55 81 155
4 47 93 50 156
4 62 59 61 154
4 127 42 140 150
4 139 162 143 163
4 15 30 16 152
4 18 17 36 156
4 136 134 38 164
4 35 96 97 160
4 112 85 81 157
4 141 150 143 162
4 37 118 83 161
4 140 146 127 150
4 126 43 108 151
4 107 70 65 153
4 108 151 43 164
4 42 123 140 163
4 62 154 61 158
4 117 36 78 159
4 132 151 135 164
4 137 133 103 151
4 82 73 114 158
4 131 137 41 157
4 128 44 110 150
4 69 161 122 162
4 125 150 44 162
4 125 161 150 162
4 133 45 103 151
4 36 156 78 159
4 77 68 63 159
4 91 42 160 163
4 58 63 60 159
4 65 62 61 158
4 135 151 137 157
4 85 63 155 159
4 82 84 73 158
4 128 12 146 150
4 41 120 77 157
4 13 150 110 161
4 125 110 44 150
4 131 135 137 157
4 58 85 63 155
4 58 155 63 159
4 30 152 83 158
4 107 69 122 162
4 121 157 98 164
4 140 143 150 163
4 136 132 135 164
4 110 150 125 161
4 150 143 162 163
4 104 44 141 162
4 130 43 132 164
4 114 30 83 158
4 127 146 12 150
4 79 71 70 153
4 121 98 38 164
4 143 141 146 150
4 138 132 126 151
4 19 108 18 151
4 80 153 102 160
4 143 146 140 150
4 132 136 130 164
4 72 75 117 159
4 48 96 94 152
4 151 157 135 164
4 127 109 42 150
4 88 52 87 154
4 113 106 33 153
4 128 110 12 150
4 109 12 13 150
4 116 83 30 152
4 115 78 36 156
4 54 51 53 155
4 105 131 41 157
4 62 86 59 154
4 12 110 13 150
4 42 91 123 163
4 47 46 93 156
4 141 143 145 162
4 91 42 97 160
4 123 144 140 163
4 109 127 12 150
4 19 18 111 151
4 106 153 113 162
4 141 145 104 162
4 58 56 85 155
4 88 80 89 160
4 113 153 107 162
4 126 108 19 151
4 89 80 102 160
4 142 139 143 163
4 72 68 75 159
4 137 135 133 151
4 66 65 61 158
4 103 45 124 151
4 90 97 96 160
4 108 43 101 164
4 102 160 153 163
4 126 19 138 151
4 63 64 60 159
4 106 113 107 162
4 145 143 139 162
4 37 13 110 161
4 147 153 150 161
4 31 48 94 152
4 115 36 17 156
4 69 76 122 161
4 79 102 80 153
4 15 116 30 152
4 130 136 38 164
4 129 45 133 151
4 95 87 52 154
4 77 105 41 157
4 117 78 72 159
4 40 139 106 162
4 86 62 71 154
4 150 153 147 160
4 56 58 57 155
4 105 32 131 157
4 125 44 104 162
4 74 76 69 161
4 53 55 54 155
4 102 153 33 163
4 133 138 129 151
4 32 134 131 157
4 46 34 93 156
4 72 78 73 159
4 114 83 82 158
4 132 138 135 151
4 40 145 139 162
4 150 162 153 163
4 101 100 67 164
4 102 89 160 163
4 129 138 19 151
4 104 28 141 44
4 103 133 10 45
4 147 152 154 158
4 113 70 107 153
4 31 94 15 152
4 134 135 131 157
4 140 144 143 163
4 45 111 124 151
4 86 71 87 154
4 148 156 155 159
4 72 73 64 159
4 99 67 100 164
4 95 86 87 154
4 115 17 16 156
4 94 14 15 152
4 14 116 15 152
4 119 33 142 163
4 88 89 90 160
4 17 46 16 156
4 54 56 57 155
4 99 38 98 164
4 133 10 137 103
4 56 54 55 155
4 28 141 145 104
4 25 106 139 33
4 105 32 7 131
4 33 102 79 153
4 105 77 112 157
4 76 161 125 162
4 46 17 34 156
4 84 66 61 158
4 76 122 161 162
4 155 156 149 159
4 121 134 32 157
4 91 160 89 163
4 119 102 33 163
4 129 111 45 151
4 82 83 74 158
4 142 23 119 163
4 113 33 79 153
4 148 154 152 158
4 23 39 119 163
4 100 43 130 164
4 150 161 153 162
4 33 139 25 142
4 32 134 7 131
4 82 74 66 158
4 129 19 111 151
4 74 118 76 161
4 100 101 43 164
4 142 144 23 163
4 23 144 39 163
4 130 38 100 164
4 121 32 98 157
4 137 41 8 131
4 39 91 89 163
4 76 125 104 162
4 32 81 98 157
4 41 105 8 131
4 138 133 135 151
4 26 106 40 139
4 149 157 151 164
4 32 112 81 157
4 84 82 66 158
4 145 40 104 162
4 145 26 40 139
4 113 79 70 153
4 99 100 38 164
4 91 39 123 163
4 40 106 107 162
4 144 123 39 163
4 102 39 89 163
4 76 104 122 162
4 153 160 150 163
4 123 21 42 140
4 3 132 130 43
4 63 68 64 159
4 37 110 125 161
4 105 112 32 157
4 137 9 41 103
4 68 72 64 159
4 2 126 132 43
4 142 143 144 163
4 20 42 140 127
4 107 122 40 162
4 29 128 141 44
4 126 138 2 132
4 127 140 20 146
4 145 40 27 104
4 129 133 11 138
4 146 128 141 29
4 97 90 91 160
4 45 133 11 129
4 1 12 146 128
4 1 12 127 146
4 0 129 138 19
4 19 138 0 126
4 24 33 25 142
4 134 7 6 32
4 144 22 39 123
4 118 37 125 161
4 28 145 27 104
4 10 9 137 103
4 144 21 123 140
4 136 38 4 130
4 89 91 90 160
4 39 102 119 163
4 132 136 3 130
4 39 22 144 23
4 38 4 5 136
4 20 42 21 140
4 132 3 2 43
4 122 104 40 162
4 6 121 134 32
4 8 9 41 137
4 24 33 142 119
4 7 8 105 131
4 26 106 139 25
4 141 28 29 44
4 133 11 10 45
4 127 20 1 146
4 129 11 0 138
4 138 2 0 126
4 40 27 26 145
4 128 146 1 29
4 118 125 76 161
4 22 144 21 123
4 136 4 3 130
4 23 24 142 119
4 121 5 6 134
4 160 92 96 90
4 160 96 92 147
4 37 152 83 116
4 157 103 137 41
4 157 137 103 151
4 156 30 78 148
4 156 78 30 115
4 83 161 152 37
4 83 152 161 147
4 14 152 161 37
4 14 161 152 147
4 164 134 135 136
4 164 135 134 157
4 134 38 5 136
4 134 5 38 121
4 160 109 42 97
4 160 42 109 150

CELL_TYPES 794
1
1
3
3
3
3
3
3
3
3
3
3
3
3
3
3
3
3
3
3
3
3
3
3
3
3
3
3
3
3
3
3
3
5
5
5
5
5
5
5
5
5
5
5
5
5
5
5
5
5
5
5
5
5
5
5
5
5
5
5
5
5
5
5
5
5
5
5
5
5
5
5
5
5
5
5
5
5
5
5
5
5
5
5
5
5
5
5
5
5
5
5
5
5
5
5
5
5
5
5
5
5
5
5
5
5
5
5
5
5
5
5
5
5
5
5
5
5
5
5
5
5
5
5
5
5
5
5
5
5
5
5
5
5
5
5
5
5
5
5
5
5
5
5
5
5
5
5
5
5
5
5
5
5
5
5
5
5
5
5
5
5
5
5
5
5
5
5
5
5
5
5
5
5
5
5
5
5
5
5
5
5
5
5
5
5
5
5
5
5
5
5
5
5
5
5
5
5
5
5
5
5
5
5
5
5
5
5
5
5
5
5
5
5
5
5
5
5
5
5
5
5
5
5
5
5
5
5
5
5
5
5
5
5
5
5
5
5
5
5
5
5
5
5
5
5
5
5
5
5
5
5
5
5
5
5
5
5
5
5
5
5
5
5
5
5
5
5
5
5
5
5
5
5
5
5
5
5
5
5
5
5
5
5
5
5
5
5
5
5
5
5
5
5
5
5
5
5
5
5
5
5
5
5
5
5
5
5
5
5
5
5
5
5
5
5
5
5
5
5
5
5
5
10
10
10
10
10
10
10
10
10
10
10
10
10
10
10
10
10
10
10
10
10
10
10
10
10
10
10
10
10
10
10
10
10
10
10
10
10
10
10
10
10
10
10
10
10
10
10
10
10
10
10
10
10
10
10
10
10
10
10
10
10
10
10
10
10
10
10
10
10
10
10
10
10
10
10
10
10
10
10
10
10
10
10
10
10
10
10
10
10
10
10
10
10
10
10
10
10
10
10
10
10
10
10
10
10
10
10
10
10
10
10
10
10
10
10
10
10
10
10
10
10
10
10
10
10
10
10
10
10
10
10
10
10
10
10
10
10
10
10
10
10
10
10
10
10
10
10
10
10
10
10
10
10
10
10
10
10
10
10
10
10
10
10
10
10
10
10
10
10
10
10
10
10
10
10
10
10
10
10
10
10
10
10
10
10
10
10
10
10
10
10
10
10
10
10
10
10
10
10
10
10
10
10
10
10
10
10
10
10
10
10
10
10
10
10
10
10
10
10
10
10
10
10
10
10
10
10
10
10
10
10
10
10
10
10
10
10
10
10
10
10
10
10
10
10
10
10
10
10
10
10
10
10
10
10
10
10
10
10
10
10
10
10
10
10
10
10
10
10
10
10
10
10
10
10
10
10
10
10
10
10
10
10
10
10
10
10
10
10
10
10
10
10
10
10
10
10
10
10
10
10
10
10
10
10
10
10
10
10
10
10
10
10
10
10
10
10
10
10
10
10
10
10
10
10
10
10
10
10
10
10
10
10
10
10
10
10
10
10
10
10
10
10
10
10
10
10
10
10
10
10
10
10
10
10
10
10
10
10
10
10
10
10
10
10
10
10
10
10
10
10
10
10
10
10
10
10
10
10
10
10
10
10
10
10
10
10
10
10
10
10
10
10
10
10
10
10
10
10
10
10
10
10
10
10
10
10
10
10
10
10
10
10
10
10
10
10
10
10
10
10
10
10
10
10
10
10
10
10
10
10
10
10
10
10
10
10
10
10
10
10
10
10
10
10
10
10
10
10
10
10
10
10
10
10
10
10
10
10
10
10
10
10
10
10
10
10
10
10
10
10

POINT_DATA 165
VECTORS deplacements float
-6.02107e-13 4.91242e-13 -2.24806e-12
1.84513e-12 -2.84627e-13 -7.79756e-13
1.05044e-13 3.9886e-12 -1.01693e-12
-1.15413e-12 6.68214e-14 4.22894e-13
5.98495e-13 -6.19969e-13 -1.35687e-09
-5.37395e-09 1.96776e-09 -1.59952e-09
-5.44308e-09 5.41312e-10 -8.58465e-10
-5.64338e-09 5.89292e-10 -7.99923e-10
-5.75865e-09 3.63216e-10 -1.16756e-09
-5.5172e-09 5.13774e-10 -1.03565e-09
-5.26535e-09 5.0913e-10 -1.1665e-09
-4.73394e-09 3.69621e-10 -1.25434e-09
-6.84157e-09 -1.09044e-09 -2.7248e-09
-9.28584e-09 -1.35687e-09 -2.43579e-09
-9.22824e-09 -1.24857e-09 -2.40651e-09
-8.93328e-09 -1.13539e-09 -2.38865e-09
-8.44753e-09 -9.18456e-10 -2.19252e-09
-7.61581e-09 -5.57345e-10 -1.88267e-09
-6.73593e-09 -3.35184e-10 -1.62658e-09
-4.69207e-09 9.45078e-11 -1.52397e-09
-9.47096e-09 -1.59324e-09 -2.37913e-09
-9.97789e-09 -1.48407e-09 -2.54789e-09
-9.9561e-09 -1.51763e-09 -2.47152e-09
-9.95938e-09 -1.46944e-09 -2.51624e-09
-9.98865e-09 -1.43696e-09 -2.53678e-09
-9.94574e-09 -1.30942e-09 -2.59408e-09
-9.61201e-09 -1.26058e-09 -2.53758e-09
-9.56072e-09 -1.20427e-09 -2.3579e-09
-9.09067e-09 -1.08256e-09 -2.22835e-09
-8.17965e-09 -1.09067e-09 -2.38189e-09
-8.52113e-09 -9.69057e-10 -2.12357e-09
-8.73208e-09 -9.39356e-10 -2.33979e-09
-5.53203e-09 6.61147e-10 -7.00315e-10
-9.77096e-09 -1.32415e-09 -2.51462e-09
-7.00886e-09 -5.63922e-10 -1.85409e-09
-9.29564e-09 -1.32709e-09 -2.50008e-09
-6.86847e-09 -4.19462e-10 -1.53757e-09
-9.15592e-09 -1.29508e-09 -2.45672e-09
-4.11566e-09 2.03192e-10 -2.88413e-09
-9.8646e-09 -1.47057e-09 -2.49372e-09
-9.52604e-09 -1.2795e-09 -2.44007e-09
-5.75709e-09 4.29861e-10 -8.2424e-10
-9.52017e-09 -1.38613e-09 -2.37197e-09
-5.17948e-09 1.36331e-10 -6.08533e-10
-8.84878e-09 -9.43837e-10 -2.28204e-09
-5.02638e-09 4.41604e-10 -1.14969e-09
-8.05118e-09 -9.66281e-10 -2.32041e-09
-8.41982e-09 -9.56317e-10 -2.20922e-09
-9.02536e-09 -1.12589e-09 -2.55721e-09
-8.89988e-09 -9.44598e-10 -2.25116e-09
-8.25487e-09 -6.31001e-10 -2.06194e-09
-8.4718e-09 -8.01422e-10 -1.82948e-09
-8.9951e-09 -1.08607e-09 -2.32862e-09
-6.88557e-09 -6.50543e-10 -1.61478e-09
-8.0945e-09 -5.94161e-10 -1.64694e-09
-6.63258e-09 -5.96157e-11 -1.37026e-09
-7.27881e-09 -1.69773e-10 -1.06297e-09
-8.33118e-09 -5.1289e-10 -1.62572e-09
-7.73893e-09 -1.71084e-10 -1.4154e-09
-8.43672e-09 -4.91661e-10 -1.77358e-09
-8.06773e-09 -3.20102e-10 -1.51584e-09
-8.52391e-09 -7.65141e-10 -1.82238e-09
-8.97153e-09 -8.41205e-10 -2.05163e-09
-7.14665e-09 -6.28087e-11 -1.04726e-09
-7.98469e-09 -3.09173e-10 -1.19345e-09
-9.13997e-09 -9.7273e-10 -2.1888e-09
-8.99371e-09 -8.93626e-10 -2.0828e-09
-7.30708e-09 -4.16779e-10 -1.76712e-09
-6.78301e-09 -4.96204e-11 -1.35432e-09
-9.21568e-09 -1.06001e-09 -2.26821e-09
-9.24868e-09 -1.07489e-09 -2.28373e-09
-9.24523e-09 -1.04804e-09 -2.2654e-09
-7.30868e-09 -3.06317e-10 -1.54737e-09
-8.25155e-09 -6.52777e-10 -1.74249e-09
-9.11776e-09 -1.08841e-09 -2.28609e-09
-6.47095e-09 8.89061e-12 -1.14429e-09
-9.21963e-09 -1.18176e-09 -2.37944e-09
-6.64626e-09 3.19552e-10 -1.04627e-09
-7.86637e-09 -5.76662e-10 -1.55262e-09
-9.57196e-09 -1.23991e-09 -2.29499e-09
-9.41139e-09 -1.24641e-09 -2.41456e-09
-6.21336e-09 2.04118e-10 -9.42697e-10
-8.77644e-09 -9.24138e-10 -2.08229e-09
-8.99533e-09 -1.08308e-09 -2.25362e-09
-8.46304e-09 -6.18426e-10 -1.79553e-09
-6.9583e-09 2.523e-10 -9.85665e-10
-8.8322e-09 -7.5319e-10 -1.90595e-09
-9.13401e-09 -1.0167e-09 -2.18315e-09
-9.35321e-09 -1.2557e-09 -2.36511e-09
-9.67953e-09 -1.41743e-09 -2.47642e-09
-9.50853e-09 -1.43005e-09 -2.44753e-09
-9.7143e-09 -1.50126e-09 -2.49566e-09
-9.21843e-09 -1.20344e-09 -2.39894e-09
-7.69318e-09 -7.62656e-10 -2.04335e-09
-9.20245e-09 -1.20382e-09 -2.46333e-09
-8.61141e-09 -7.76907e-10 -1.99426e-09
-9.32379e-09 -1.29597e-09 -2.54054e-09
-9.40466e-09 -1.42106e-09 -2.36294e-09
-5.92532e-09 7.02219e-10 -9.88358e-10
-6.37325e-09 -1.19434e-10 -1.28599e-09
-6.27559e-09 -4.92674e-11 -1.40822e-09
-6.76998e-09 -3.44494e-10 -1.42947e-09
-9.71804e-09 -1.40648e-09 -2.51696e-09
-5.56058e-09 1.94556e-10 -1.12555e-09
-9.14563e-09 -1.18882e-09 -2.3433e-09
-5.98913e-09 5.34004e-10 -8.34677e-10
-9.6333e-09 -1.26215e-09 -2.50224e-09
-9.33454e-09 -1.18124e-09 -2.38026e-09
-5.76054e-09 -1.2391e-10 -1.07787e-09
-9.03003e-09 -1.54641e-09 -2.31439e-09
-8.39515e-09 -1.44767e-09 -2.23145e-09
-5.68595e-09 -1.60976e-10 -1.65469e-09
-6.08599e-09 4.23411e-10 -7.70753e-10
-9.55241e-09 -1.16206e-09 -2.40985e-09
-8.43399e-09 -9.05687e-10 -2.01879e-09
-7.79604e-09 -7.15744e-10 -2.09122e-09
-9.08716e-09 -1.15442e-09 -2.34463e-09
-6.87257e-09 -2.76465e-10 -1.51657e-09
-9.13409e-09 -1.13621e-09 -2.36441e-09
-9.89747e-09 -1.43601e-09 -2.49862e-09
-6.17331e-09 2.09668e-10 -9.457e-10
-5.09071e-09 6.63451e-10 -9.91071e-10
-9.36582e-09 -1.18474e-09 -2.39625e-09
-9.85454e-09 -1.52363e-09 -2.43428e-09
-6.55891e-09 9.83418e-11 -1.21938e-09
-8.97721e-09 -1.14003e-09 -2.26703e-09
-3.53685e-09 2.67662e-10 -5.53477e-10
-9.19125e-09 -1.47009e-09 -2.33185e-09
-8.14347e-09 -1.31075e-09 -3.63262e-09
-4.38541e-09 2.55431e-10 -1.24104e-09
-4.43738e-09 4.76511e-10 -6.67442e-10
-5.52933e-09 4.93348e-10 -8.4839e-10
-3.1794e-09 7.34609e-10 -6.83553e-10
-4.75854e-09 3.19928e-10 -1.27255e-09
-5.1978e-09 5.26946e-10 -7.75839e-10
-5.32684e-09 4.24307e-10 -8.78874e-10
-3.53852e-09 5.01583e-10 -8.42466e-10
-5.34459e-09 3.67197e-10 -1.06596e-09
-3.703e-09 6.0766e-10 -1.68173e-09
-9.72159e-09 -1.31537e-09 -2.54797e-09
-9.33034e-09 -1.53634e-09 -2.37317e-09
-9.00565e-09 -1.09624e-09 -2.2763e-09
-9.81535e-09 -1.4483e-09 -2.50875e-09
-9.30131e-09 -1.42167e-09 -2.48052e-09
-9.84039e-09 -1.41887e-09 -2.40077e-09
-9.32323e-09 -1.17116e-09 -2.35478e-09
-8.75465e-09 -1.06399e-09 -1.88474e-09
-9.25743e-09 -1.21235e-09 -2.35976e-09
-8.4204e-09 -6.94326e-10 -2.00557e-09
-6.59305e-09 7.97165e-12 -1.28221e-09
-9.287e-09 -1.37632e-09 -2.47823e-09
-5.51632e-09 3.29498e-10 -9.91129e-10
-8.95834e-09 -1.10233e-09 -2.35992e-09
-9.47974e-09 -1.32814e-09 -2.4231e-09
-8.98901e-09 -9.41514e-10 -2.1422e-09
-7.72228e-09 -2.77932e-10 -1.57644e-09
-7.76604e-09 -4.29541e-10 -1.85723e-09
-5.68438e-09 3.5778e-10 -9.35588e-10
-8.99927e-09 -1.01956e-09 -2.12363e-09
-7.48785e-09 -1.60888e-10 -1.48696e-09
-9.4753e-09 -1.4695e-09 -2.48606e-09
-9.28528e-09 -1.25866e-09 -2.40034e-09
-9.42983e-09 -1.29011e-09 -2.49686e-09
-9.81111e-09 -1.44402e-09 -2.45471e-09
-5.7489e-09 3.81422e-11 -1.04243e-09
